LAMMPS data file via write_data, version 7 Feb 2024, timestep = 200023, units = lj

17453 atoms
1 atom types

0 82.42963980979042 xlo xhi
0 20.656891258233244 ylo yhi
0 20.656891258233244 zlo zhi

Masses

1 1

Atoms # atomic

1407 1 1.9162137250079763 1.8894899927259443 1.1233689815603465 0 0 0
678 1 0.6816927797895925 1.4371500745753507 1.62058626730285 0 0 0
2 1 0.027694183653930806 2.1654948056620986 0.7291313535196802 0 0 0
680 1 1.7236251271018346 0.184962329780222 1.2074925253291842 0 0 0
626 1 1.5171374560480984 0.5292993989792129 2.4538764684077634 0 1 0
677 1 0.44644149985011505 0.5286334126666913 0.9150704558782321 0 0 0
1408 1 1.8790295170209226 1.9732261176892305 2.516787655748914 0 0 0
1977 1 0.2445974838277535 0.38648029724556315 2.3359151993280713 0 1 0
731 1 1.338894341220521 2.6399720613363136 0.3024533912828422 0 0 0
1 1 1.139356619281071 1.2980307108173705 0.19754986731739732 0 0 0
1405 1 2.7245695572077056 0.9048629047928772 1.8800862914694898 0 0 0
733 1 3.499655256472987 1.5030110532143703 1.0850856392694903 0 0 0
682 1 4.5606097666701055 0.9455348148935795 1.764658712409724 0 0 0
681 1 3.4573012807325467 0.13973093727067293 0.9932830244078603 0 0 0
1357 1 3.5779482406431655 0.2460039700969091 2.420860157012931 0 0 0
1409 1 3.4894417006138334 1.5972377407746678 2.5980339774584715 0 0 0
732 1 2.846997627496842 2.570830226157417 1.7455974086219137 0 0 0
679 1 2.529640480346779 0.9225136441312827 0.31341815467702916 0 0 0
6 1 4.492886914634212 1.089758682741343 0.28933449197712224 0 0 0
735 1 5.026496157701526 2.0504646198918115 1.0941043565790576 0 0 0
684 1 5.90711966312131 0.9142072457313951 1.5355150809984943 0 0 0
737 1 6.60108973952286 1.8027703078439372 0.7473385851402325 0 0 0
685 1 6.6732773248669135 0.19370523418568553 0.7205758224192522 0 0 0
683 1 5.108729181847632 20.57661331365024 0.8031882591724152 0 -1 0
1413 1 6.45031224417445 1.8014395033547446 2.547476235209909 0 0 0
1361 1 6.677500033976461 0.11883729138867252 2.4581885173810663 0 0 0
1411 1 5.151471825145851 1.7794730784022637 2.551291738447664 0 0 0
738 1 7.003056748777808 2.6465320009924103 1.6581753926103662 0 0 0
8 1 5.686699420173218 1.0459475171547685 0.11831793826983973 0 0 0
111 1 5.951883421031108 2.426992359342373 20.63024085541053 0 0 -1
686 1 7.530959614695227 0.9361643668620031 1.6307313006149196 0 0 0
10 1 7.641560770579637 1.0423710489398668 0.2871251891709143 0 0 0
688 1 8.990246074760934 1.0976456365516216 1.7233700028086794 0 0 0
739 1 8.106269025679298 1.9498628210123656 0.975612627810252 0 0 0
687 1 8.56954475183408 0.31830365182022086 0.9595406647424424 0 0 0
1363 1 8.272137379447647 0.3853045005073544 2.6111877870901226 0 0 0
1415 1 7.826508799972158 1.9295746069917992 2.5448293836389198 0 0 0
62 1 7.398002937753674 2.657762142114731 0.072741078143155 0 0 0
740 1 8.873192128688693 2.7893797069762503 1.8119961761269419 0 0 0
12 1 8.982468176755713 1.2777862791965107 0.08759464411281133 0 0 0
689 1 9.81692448607177 0.24680458668666594 1.1125686020193775 0 0 0
741 1 9.903703637869295 1.8561653467142079 0.9215215218964218 0 0 0
1417 1 9.724068318940372 1.9930025164185254 2.556388948979793 0 0 0
690 1 10.667101025106234 1.1148695056888391 1.8115299952030928 0 0 0
743 1 11.59630434329794 1.8191287417135913 1.144530618944645 0 0 0
691 1 11.388887623535037 0.2984658742523991 1.0874602116442926 0 0 0
1367 1 11.571195405637454 0.3271633684244642 2.4639159751280806 0 0 0
14 1 10.740248204588474 1.1328292625094891 0.37235037129525334 0 0 0
16 1 12.306679267043982 0.9535565766505534 0.07901250336149099 0 0 0
692 1 12.447434911593232 1.007180381452574 1.6507140910032307 0 0 0
745 1 12.846594897140584 2.0591256128897637 0.8905454516367274 0 0 0
694 1 13.690176392663979 1.1524725828693945 1.5085963506492206 0 0 0
693 1 13.029664363148104 0.0028988386981332165 0.9017549174503753 0 0 0
18 1 13.819807585015697 1.138787850187498 0.06167689132737938 0 0 0
1421 1 12.914457488861933 1.6290561921246167 2.5443364719791126 0 0 0
1371 1 14.570785803817923 0.30002083379112204 2.5198130803034897 0 0 0
695 1 14.345964138900955 0.22501227400467005 0.7425022512385911 0 0 0
747 1 14.649169851534 2.0025679031530204 0.8074458394679236 0 0 0
749 1 16.273733270546902 1.8354170164510948 1.0149963386817047 0 0 0
696 1 15.198421292583635 1.1414451765194762 1.6980633431839647 0 0 0
1320 1 16.078243061959963 0.5091493574369118 0.9329874888429724 0 1 0
1373 1 16.03899546712088 0.4641447179384418 2.5988107218955165 0 0 0
698 1 15.972530670591333 1.8439552046403973 2.4803903356509287 0 0 0
20 1 15.273140118874116 1.1724533930388448 0.12395563939106921 0 0 0
697 1 16.91112701272219 1.1739426683916327 20.635313487000133 0 0 -1
699 1 17.00523728476533 1.1341378408083853 2.0347078496813324 0 0 0
700 1 18.553519945432704 1.3094728408732048 1.594250704103212 0 0 0
751 1 17.6565917197434 1.8856842626066463 0.8084326752675997 0 0 0
24 1 17.777522750996834 0.49642086380722245 1.1071760116673595 0 0 0
701 1 19.411448069140498 0.034213776124910555 0.8202705186874039 0 0 0
127 1 18.73403796887277 2.623865272806197 0.2003718840181913 0 0 0
753 1 18.647211995772956 1.1596849297770893 0.17884933863755212 0 0 0
752 1 18.60074951189049 2.6014849252663494 1.6628911259816073 0 0 0
1375 1 17.86774474567742 0.25021724037686416 2.582552106074391 0 0 0
1427 1 17.93033280488798 1.9450775675916656 2.3989316540367436 0 0 0
1377 1 19.33702715752563 0.10509278100727865 2.376921081221904 0 0 0
76 1 19.51057234116815 1.7923984256312675 0.7635029173301389 0 0 0
702 1 20.133716423683126 0.8479824240818059 1.776410442899335 0 0 0
755 1 20.96856843783602 1.8576241617564095 0.9408439246762316 0 0 0
703 1 20.899610311352767 0.2904965598498294 0.7886667781580621 0 0 0
1378 1 20.926443347868624 2.0979930311606383 2.4011000759449797 0 0 0
1379 1 21.034011627295815 0.1397109762392647 2.2921648885739003 0 0 0
1431 1 21.566329515296573 1.0925810952745694 1.5775515724288591 0 0 0
28 1 21.64218274410832 0.897297893770301 20.57329835995375 0 0 -1
26 1 20.19186190087951 0.9761859219307336 0.15011095363683824 0 0 0
757 1 22.404556293035277 1.927443826940118 0.7750586954643867 0 0 0
706 1 23.325699995489806 1.1786015484441232 1.424222995868426 0 0 0
704 1 22.533474369117283 0.5153224915839184 0.8805054101064522 0 0 0
1433 1 22.537126446785447 1.5909792624466796 2.3014154455906786 0 0 0
708 1 23.989682797892076 0.38766630989119955 2.248822247950841 0 0 0
1381 1 22.681691944307445 0.262706181139562 2.3393618866757344 0 0 0
82 1 23.495299970866686 2.5741470671141378 0.17824840230628425 0 0 0
30 1 23.565904390330225 1.2388764735612383 0.02023659877804765 0 0 0
759 1 24.287308961309037 1.7391443657777315 2.512592972579949 0 0 0
758 1 24.345660408538944 1.848073195541899 1.0653110355711057 0 0 0
707 1 24.256493410571544 0.35456682802857276 0.731522115747264 0 0 0
761 1 25.082559438959763 0.8401618709410322 1.7252702759905107 0 0 0
709 1 25.819170675283424 0.24174481435135964 1.0179995110870874 0 0 0
86 1 25.7914171023677 1.7964141504919484 1.0249707538447346 0 0 0
710 1 26.69433956948176 1.0522351799889393 1.8151446586919124 0 0 0
1437 1 25.834357996707656 1.900221687268578 2.333009654937651 0 0 0
34 1 26.468215036072976 1.1105217085085008 0.20609777591806563 0 0 0
32 1 25.028036111099603 1.1604172073724526 0.17426203927973039 0 0 0
763 1 27.54315403599445 1.7639925860986518 0.8603970879452383 0 0 0
712 1 28.2330222815416 1.0448151187739623 1.7208976037178876 0 0 0
711 1 27.2888688959033 0.1652053357332581 0.9829735873077233 0 0 0
713 1 28.902018957936743 0.23518092405381674 1.0290546811108292 0 0 0
765 1 29.01766242594954 1.8025262648518123 0.9078764638109178 0 0 0
36 1 28.09090181084731 0.746129371282497 0.1708595059508897 0 0 0
1441 1 28.92725065573793 1.950466537385945 2.2087194637939462 0 0 0
762 1 26.784960626230948 2.6411108205203333 1.81557767650231 0 0 0
1389 1 29.23631266760288 0.35874762126629345 2.3656012067028573 0 0 0
714 1 29.888156401567272 1.2453630320639686 1.489834705641756 0 0 0
767 1 30.503466050080814 1.9578709551585327 0.7708817521568269 0 0 0
715 1 30.555131090988702 0.30919804294655534 0.6918534220315842 0 0 0
716 1 31.190211573443285 1.0372712874433458 1.4964449221555036 0 0 0
1443 1 30.647346012417152 2.233355350311694 2.4191148888318383 0 0 0
38 1 29.586481215558617 1.0764115628496815 20.569924161501707 0 0 -1
1391 1 30.62932978128254 0.409652311668838 2.514788465714695 0 0 0
769 1 32.0963025395416 1.869354470080396 0.7658668093141132 0 0 0
718 1 32.88895018062655 1.1769177561925177 1.4412492496396843 0 0 0
717 1 32.000358226550716 0.4643137447612094 0.5391235648618542 0 0 0
1445 1 32.125223537327635 2.0934686964685256 2.1874110018294166 0 0 0
719 1 33.48365125782049 0.3729197211653186 0.6168948384527894 0 0 0
1447 1 33.509942846544 2.0320349630808 2.2255149738860895 0 0 0
771 1 33.72853276977241 2.0186109247999506 0.7401025247472498 0 0 0
1393 1 32.11172746091094 0.6446716796236691 2.367903977466861 0 0 0
1342 1 33.56244348810475 0.6003424805129188 2.4551503430569124 0 1 0
720 1 34.42746922941816 1.0968839596592241 1.5691561446106401 0 0 0
772 1 35.06216388115221 1.877019545911094 0.6327388212398523 0 0 0
721 1 34.96867682226014 0.6543961997763705 0.7688415745823807 0 0 0
722 1 36.050634984982906 1.1484086837079435 1.4113903929102836 0 0 0
1449 1 35.2964452729114 1.859112450094363 2.278330509598517 0 0 0
1344 1 35.28615759465334 0.42469330271172406 2.228341669274544 0 1 0
723 1 36.10843747095432 1.137937929154799 0.07012949289027444 0 0 0
775 1 36.9320174301587 1.9645808675405845 0.7628311540183338 0 0 0
724 1 37.64219891581361 1.1959424974473387 1.242689746348787 0 0 0
777 1 38.572921804470425 1.8628613777331513 0.7426054050886934 0 0 0
670 1 36.89876748877518 0.26141693684571315 0.9056137233817464 0 1 0
725 1 38.4563417361451 0.29667057594988094 0.7361271195626518 0 0 0
1401 1 38.41929598033088 0.32161780510344706 2.2127213968917947 0 0 0
1399 1 36.7159424866393 0.4036189662115573 2.338990728422503 0 0 0
1398 1 36.85777642950864 1.8473193597868882 2.419961940941128 0 0 0
1404 1 38.33989351881065 1.840791281765842 2.5259225197571866 0 0 0
1453 1 39.137959417678175 1.1495959351566036 1.7851223621182197 0 0 0
779 1 41.07926218873753 1.1968218562000636 1.5858258946053507 0 0 0
102 1 40.1407056563653 1.9825764996101432 0.7222768623655855 0 0 0
726 1 40.00965030100425 0.41623358123280374 1.0478179494122737 0 0 0
51 1 40.84960696381545 1.0666421080177326 20.626871535337866 0 0 -1
14183 1 40.23677571151311 1.8386459231442256 2.2463549870961006 0 0 0
1403 1 40.1378483483292 0.39492126828304147 2.369732126979583 0 0 0
1455 1 41.69591559699476 2.086552694379432 0.8463478460429746 0 0 0
17408 1 42.42207633281151 1.3035690553695356 1.7836477749201425 0 1 1
11680 1 43.213834730992225 2.101801768955978 0.9666075848048408 0 1 1
13752 1 43.34972442597337 0.5246157226298819 0.8897477675745157 0 0 1
14102 1 41.71892784341647 0.5217517732906042 0.7684285272340904 0 1 1
15265 1 43.390782655651265 2.1262101621136127 2.317263371547067 0 0 0
14527 1 43.440781085757614 0.5885192502247233 2.204849359854118 0 1 0
15024 1 41.63812671407685 0.3940303530254461 2.508399764759281 0 1 0
9200 1 44.14004602536474 1.396944069485747 1.37017724364984 0 0 0
8963 1 45.203367384390965 2.149262015105357 0.9607278740270823 0 0 0
9348 1 45.85838254283431 1.3481258913435794 1.613589211820803 0 0 0
15645 1 44.97168689654986 0.47052597924290684 0.9190759992843954 0 0 1
884 1 45.03675942467843 0.736985966355039 2.2949557748876006 0 0 0
16462 1 45.61574161826639 1.3159532539622207 0.0224108378106842 0 1 0
10367 1 44.27129704130181 1.340617329121773 20.654824726749165 0 1 0
10714 1 44.88450143004474 2.0492138045926698 2.3138706890493124 0 1 0
16031 1 46.611688296370886 2.1917916842379994 0.889131195385315 0 0 0
16417 1 46.361640916833295 0.6037852783357942 0.7458317930741792 0 1 1
9255 1 47.26195715709963 1.1147688942138971 1.8543719513750845 0 1 1
10188 1 48.46392271823423 0.3160157690084268 0.757746691267834 0 0 0
10976 1 48.11414540257347 2.1749149643849077 1.0113014724562859 0 0 0
16333 1 47.482978052200586 1.214936730787328 0.5758129090980217 0 1 1
14865 1 46.51564480005746 1.8575184599402779 2.585424510698438 0 1 0
9542 1 48.163662739681115 0.42028134406633966 2.284441171077316 0 -1 1
10995 1 48.78860785036581 1.2154854872307306 1.6193516958435177 0 1 0
11921 1 50.21026535217392 0.61812776384116 2.1875251177842165 0 0 0
9538 1 49.79000960253837 0.6824969928222198 0.8192310256407269 0 0 0
9439 1 49.43853261189207 2.010742916035886 0.5606101998092771 0 0 1
16233 1 50.060193368877584 1.8586635291495535 1.6149980461470372 0 1 0
9769 1 50.921834886914475 2.3914821806430826 0.8298498447223694 0 0 0
13553 1 53.180714519582914 0.43243613464640457 0.6379735515520862 0 1 1
11568 1 51.20118765468072 1.8200811867760258 2.2054944687313243 0 0 0
9330 1 51.04911961935713 0.985829755004679 1.1871197945712846 0 0 0
8979 1 51.98426364833222 1.6562153640428603 0.809282883008478 0 1 1
15449 1 52.38790303843641 0.6142804663058667 1.5499836923835 0 1 1
13599 1 51.72156638087238 0.28754882558134104 0.41499158866373237 0 1 0
12022 1 53.14191434368914 1.8221698571624665 1.4759171524257595 0 0 0
10609 1 54.836659805175 1.0359873887671784 0.1376882336294019 0 1 1
16544 1 54.782872128855765 1.6110820718511454 1.467212116367834 0 0 0
12574 1 53.862231093255104 1.803382219037358 0.3988803839629941 0 0 1
10975 1 53.66133606425678 0.7939004126962177 2.452441801268874 0 0 0
13260 1 55.53658128021798 0.31906311326369646 0.9842196100744144 0 0 1
9201 1 54.33836750446165 0.38426647467008296 1.2806892744637295 0 0 1
14958 1 54.9894144337564 0.8135042730853724 2.3464457365378015 0 0 1
10704 1 55.8817334129911 1.801520065988702 0.3030654027010159 0 1 0
11165 1 57.6870528501222 1.2052295685613161 2.499867066620136 0 0 0
17137 1 57.078395836896796 1.5986473485163597 1.0727461529498086 0 0 1
9009 1 57.7940394805936 0.422587348457253 0.3726275282443897 0 0 1
10784 1 55.954530083159796 2.5079022459499503 1.436283647843457 0 0 0
14751 1 56.78629507494118 2.3571390583692113 2.338749255799714 0 -1 1
17348 1 56.10721114669778 1.2186719005205284 1.9392891110580823 0 0 0
16704 1 56.32799043840721 0.72124876360526 0.23229977827560966 0 0 0
11448 1 56.86938767239314 0.2881831009693202 1.5835424811070182 0 0 1
16384 1 58.31147498820714 1.2826040796069966 1.5739279801297825 0 0 1
9991 1 58.2668147976005 1.812572310156218 0.3926673129826419 0 1 1
10861 1 60.4884203654222 1.9661039001105465 1.6316948226228947 0 1 1
14639 1 58.666071633967704 2.336256751580756 2.6613282787205854 0 0 1
17086 1 59.49359546517003 0.9212543670046812 2.3738037625332176 0 0 0
16765 1 59.30348067758879 0.9125238411972042 0.8185745020769978 0 0 1
8840 1 59.33084518970159 2.343831256389682 1.3503815751712183 0 0 0
10768 1 60.321341463897504 2.0206344418930593 0.2730620113398314 0 0 1
16546 1 60.68770945319938 0.6339233184236327 0.6597676513378563 0 0 1
16159 1 62.02486014005976 0.29028778004912786 0.45298121103537115 0 0 0
16431 1 61.732166669671464 1.415052954516274 1.338903494638439 0 0 1
13369 1 61.41897384332975 1.4465796316798236 20.565882326862273 0 -1 0
12063 1 61.4663855466159 2.3966535483656304 2.3112011715175838 0 0 1
15690 1 62.68414494326848 2.4015613904717017 1.1845147302440784 0 0 0
12938 1 60.67718543649043 0.6370731586832756 2.034304583609834 0 0 0
9313 1 62.04139497400548 0.3340521553933072 1.9717544622249183 0 1 1
8996 1 62.836603706802464 1.7363555223563294 2.367705867644687 0 1 0
16060 1 62.696168590106055 1.5506114898023218 0.07793792788350194 0 1 0
16897 1 63.08002858744552 0.8325189027659299 1.2534449526515643 0 1 1
10390 1 63.975333893671554 0.8740359329345475 2.5788838509529723 0 0 0
16834 1 64.18415404997997 1.71326327496856 1.6500451460944552 0 1 1
16771 1 65.40568299416826 0.25979831182827506 2.0657938624431837 0 0 0
13585 1 64.31900754078548 0.26778954292673046 1.2491555171557098 0 0 0
9900 1 63.815739934946805 2.283067857905683 0.4575286218012776 0 0 0
12485 1 63.99209513332053 0.9437689211907228 0.2782808325603799 0 0 1
12035 1 66.76797950568873 1.3248276800057046 1.4565585796375207 0 0 1
14331 1 67.13516539665682 2.4351419014496067 0.8156488173136998 0 1 1
11618 1 67.93629834390781 0.5662264921081944 1.82043405128224 0 1 0
13435 1 67.01620183153385 2.0522521305597246 2.54419788083195 0 0 0
12171 1 65.38967696470826 2.152788725001295 1.0077093056922495 0 0 1
10544 1 65.63293009256611 1.4875967789364872 2.211724674609047 0 0 1
11743 1 66.22844399735014 1.2123838474652775 0.16441104455767802 0 0 0
11174 1 65.55892507576523 0.8151475883175908 1.0142680217468398 0 0 0
15606 1 67.37574885059487 0.4977240011002482 0.6774341256835105 0 0 1
16260 1 68.22834504151537 1.8675648898614443 2.0936299480222997 0 1 1
13894 1 68.2435625909643 1.6890459899560808 0.7682261008769745 0 1 0
10111 1 68.77223609073563 0.38720774515189693 2.4347531983016166 0 0 0
15843 1 70.36092092307636 0.7379952850245598 0.99856633879171 0 0 0
17298 1 69.08126951650549 0.7107564534522797 0.874685926354764 0 1 0
12356 1 69.87335198401986 2.22619437854494 0.6308333848187556 0 0 1
9395 1 69.87876449915845 0.07147305390749135 2.020994165028728 0 2 0
14055 1 69.76894273683975 1.5844544265478735 1.9698109028640078 0 0 0
10628 1 72.35569084574193 2.254058805270659 0.9827558093396038 0 1 1
12822 1 70.99794381737475 1.7982226602639972 1.2584153077855087 0 1 0
11191 1 72.15471746357599 0.9860901415801135 0.794124389355113 0 0 0
16008 1 71.40808268315837 0.7992384940625129 2.040824780710108 0 0 0
12288 1 72.66475245140599 1.196675866585141 1.769421480083532 0 1 1
15771 1 71.79268644420871 2.3810266491071865 2.2487626195879464 0 1 1
16451 1 70.53092305323902 2.4832156771607785 2.5913779051334505 0 1 0
15952 1 73.61793531974939 1.0661318605318693 0.8429609952537764 0 0 1
14261 1 74.60513726764826 1.6986219313586608 1.1700655162752123 0 0 0
16654 1 73.78935003886811 2.7282426206553483 0.516704760229846 0 0 0
10002 1 73.92055482434479 0.9294311819918596 2.033880412986963 0 1 0
15719 1 74.58215881700283 0.239126931032634 1.1696068903929004 0 0 1
13264 1 74.84398573544955 1.2566762588895783 20.622984469854945 0 1 0
12191 1 74.66006211937942 2.13473048417263 2.480280036978607 0 0 1
9512 1 73.65311901680877 2.2123800985305055 1.6836337195231372 0 0 0
16229 1 75.50826048480789 1.1858448871332767 1.8573353623679056 0 1 1
10850 1 76.37390168019994 2.2791212611666283 2.454480228873123 0 0 0
11962 1 75.94799660185934 0.8638067646170574 0.7410900095068699 0 0 1
14439 1 77.10270480071931 1.4099113642510637 0.13006078053328837 0 0 0
13746 1 77.04556141084707 1.3352467963345065 1.488541759139139 0 1 0
10666 1 76.28311224798962 2.0467557892536816 1.021511174284004 0 0 0
9721 1 77.99478583090439 0.5504824121915656 1.0807985022126385 0 1 1
14565 1 77.86166351364302 2.39796217407006 1.0851661263492614 0 1 0
14299 1 79.0143327855683 1.2603565873164604 1.6387543162299754 0 0 0
12832 1 79.4716317519042 0.37807708565263604 0.7223957748288757 0 0 1
15090 1 79.59701514853963 0.43114086915163036 2.3103964954049077 0 0 0
9034 1 79.55000400575271 2.062101631284598 0.8841828530287257 0 0 1
13627 1 77.92007854814854 1.9901268984113365 2.29292391166037 0 0 0
53 1 78.53657197193405 1.2616206855112226 0.224811362247352 -1 0 0
16904 1 79.54324218534603 2.1031248057806775 2.4175136751075397 0 0 0
13615 1 80.47472189863828 1.04512138887656 1.6933388485725356 0 0 0
15163 1 81.01203259663089 1.975026598258659 1.0350175971672104 0 0 0
8881 1 81.86067437352278 1.1620300740352492 1.3530729433358024 0 0 0
14781 1 80.81021334545696 0.11618261894601213 0.6162474661373231 0 1 1
17122 1 80.30743918778077 1.1544090032590808 0.0736444878522045 0 1 0
10040 1 81.28123001313918 0.41465071671687764 2.279883808723201 0 0 0
14330 1 81.60480832757382 1.1954747330285254 0.21773842323558884 0 0 0
730 1 0.9722992211799469 2.7438532001025733 1.8812244140737244 0 0 0
783 1 1.9957609234173899 3.38863398738116 1.1243651850404426 0 0 0
782 1 1.1781046247324891 4.299589282514674 1.576294935052433 0 0 0
781 1 0.14940939930974162 3.454920808197054 0.9529359128339671 0 0 0
2133 1 0.3745218092011594 3.6610256422617757 2.54903306728488 0 0 0
833 1 0.24426112223699295 5.105335093975347 1.0261996434743315 0 0 0
1459 1 1.9065899039323742 3.7208457201958534 2.3463271280309166 0 0 0
1510 1 0.4377121896690754 5.150229708645148 2.3915746920739425 0 0 0
107 1 1.0857294293156348 4.164263258115423 0.07802597133131847 0 0 0
787 1 4.124104634592474 2.7318887500123745 1.660812047685551 0 0 0
784 1 2.8509005902844797 4.564186790732774 1.5769029619652883 0 0 0
785 1 4.384561179074614 4.4913191469904685 1.5682563896615533 0 0 0
108 1 3.329350516466432 3.608470132216528 0.8412003952025463 0 0 0
56 1 2.7795375291392226 2.67833513760785 0.20362502594704618 0 0 0
8220 1 2.4624337484678342 4.196067326221918 0.4223979138265961 0 0 1
734 1 3.2880530933463845 3.5151290119079124 2.2640182681060503 0 0 0
1463 1 4.825993683005396 3.6175070785977046 2.33219059411626 0 0 0
839 1 4.397059292781227 4.334154473144532 0.14623536697697667 0 0 0
58 1 4.163204101619554 2.702791325209006 0.26395535128719577 0 0 0
60 1 4.872265952827726 3.5164830579124464 0.9954125228907678 0 0 0
736 1 5.787853441944373 2.737325190084826 1.8923443133947802 0 0 0
789 1 6.355290357128601 3.397859259246471 0.7436542478394885 0 0 0
788 1 5.848355855365574 4.402869576849228 1.5374841290339782 0 0 0
1465 1 6.805897716511587 3.903845866840824 2.0243225765134625 0 0 0
841 1 6.753355259898909 5.101084954416546 0.7949046541185499 0 0 0
112 1 5.685009962293938 4.469406394527649 0.18176145224981108 0 0 0
64 1 8.81453138267593 2.7611222741116306 0.1904289305639356 0 0 0
790 1 7.678766741218695 4.579675071995329 1.6113764851567165 0 0 0
791 1 7.8825514330545134 3.4334610281652838 1.0640599676188216 0 0 0
792 1 8.91483854972976 4.205323340989137 1.7502189577096523 0 0 0
1467 1 7.973629052998529 3.557028773891478 2.5048839850246303 0 0 0
116 1 8.8647561855351 4.0728849594781815 0.2946938401673803 0 0 0
742 1 10.65084669852428 2.6288701673353017 1.825559756951992 0 0 0
793 1 9.638460757725019 3.2644988202657244 1.1265207415881542 0 0 0
795 1 11.331258643013703 3.443726813539581 0.9298617172591708 0 0 0
794 1 10.548991100706276 4.245596185412811 1.8490487184860238 0 0 0
796 1 11.999158711813376 4.418833976598865 1.639232836217772 0 0 0
845 1 10.010402096922473 4.8933425576189915 0.9026109226262921 0 0 0
120 1 12.17614401632763 4.467409318341963 0.24098204009133664 0 0 0
1523 1 11.476375074709512 5.1748717954497945 2.5672292399551173 0 0 0
66 1 10.724569859402866 2.630541866353736 0.14943980631953144 0 0 0
68 1 12.085449940852909 2.858868488647235 0.042987986725710296 0 0 0
118 1 10.729940125812668 4.2108029510779525 0.11913260068851685 0 0 0
746 1 13.832014582234565 2.648508273389238 1.8426456393040294 0 0 0
744 1 12.006942473461338 2.6476088344949136 1.8757230874453419 0 0 0
70 1 13.690854485518846 2.654971171537206 0.2957728754902198 0 0 0
797 1 12.700622134791743 3.4934477532438546 0.9765337713270712 0 0 0
798 1 13.620891100307817 4.2465681633960095 1.656738715921375 0 0 0
1473 1 12.76693555658388 3.4953280419637762 2.306002425050902 0 0 0
122 1 14.018143040363876 4.408811398792026 0.12985388462151604 0 0 0
849 1 12.944679557965395 5.2625373284555 0.9282698587804693 0 0 0
1424 1 14.46270085413755 3.4987640549763404 2.5878607971381378 0 0 0
799 1 14.413719991527593 3.4806765285425993 0.9371889161261215 0 0 0
1527 1 14.346978249318763 4.928584806396251 2.424912680549378 0 0 0
748 1 15.284076739178767 2.6438778049673863 1.8336186431581694 0 0 0
800 1 15.434119471337095 4.2841438790417605 1.7493953936880893 0 0 0
801 1 16.294943279072832 3.40318307150866 1.0337323641913754 0 0 0
124 1 15.293570698192328 4.490939826274327 0.3533979228007744 0 0 0
1477 1 16.193051643807937 3.457325425544649 2.57526717478756 0 0 0
72 1 15.415759190059934 2.73226694944139 0.37886875172206647 0 0 0
126 1 17.03141555161202 4.441766577959422 0.29353908750944463 0 0 0
802 1 16.98383976064623 4.289846421077241 1.7286778966702676 0 0 0
750 1 16.998070684216948 2.7171588043838786 1.8133131139399246 0 0 0
803 1 17.880160519473666 3.3575120371982834 0.8218332132775321 0 0 0
804 1 18.510991616948093 4.321348641706436 1.7419658687533812 0 0 0
1531 1 17.756768023966316 5.016375441614165 2.4540203843427166 0 0 0
74 1 16.978448412583813 2.818590418485545 0.2053076818616285 0 0 0
128 1 18.528539900626136 4.447273362371747 0.24214227571475092 0 0 0
805 1 19.43705554519025 3.4143674390736765 0.9112801605370607 0 0 0
1481 1 19.513264944883687 3.341934583266892 2.390116372423681 0 0 0
1533 1 19.288027547531392 5.019229278919103 2.5428217557945763 0 0 0
1479 1 17.838881627889567 3.5316916117789106 2.5423107082653518 0 0 0
857 1 19.539024313784893 5.178656137360964 0.9964733816243185 0 0 0
754 1 20.20452781465553 2.558275671642271 1.5610418021562154 0 0 0
807 1 20.98673241897205 3.345168075710597 0.8827949473251936 0 0 0
806 1 20.008140020777926 4.1039664081381675 1.7002599525923368 0 0 0
1483 1 21.072609228788988 3.4539843883770827 2.2764187589518188 0 0 0
756 1 21.798033541478254 2.6585312761564777 1.5742615177811452 0 0 0
859 1 20.958901017310772 4.765592162345123 0.9409533410642337 0 0 0
130 1 20.09913581798878 4.336150469447066 0.14870311863181676 0 0 0
1535 1 20.9640709183373 4.943965341227508 2.4122431800995794 0 0 0
78 1 20.19056331090368 2.783176159231086 20.655440110589176 0 0 -1
1487 1 23.2505219255341 2.4721638524110303 1.608630383584838 0 0 0
808 1 21.838500577828867 4.27352728078815 1.5934023770281214 0 0 0
132 1 21.75293419569391 4.060621551942555 0.17080748631120113 0 0 0
809 1 22.524985030823636 3.4675529099543456 0.98286495156221 0 0 0
810 1 23.265519861533075 4.446452095357554 1.7234217820555031 0 0 0
1485 1 22.752598304080987 3.2880032129078027 2.332767041950518 0 0 0
811 1 24.03319368787175 3.496932463919965 1.0658899425737514 0 0 0
760 1 24.098567249507685 3.435898078465403 2.4650021379675993 0 0 0
134 1 23.406856004147173 4.298058991374948 0.08389501371340737 0 0 0
861 1 22.611995322298444 4.9439409792829885 0.7773550873935006 0 0 0
1435 1 24.96164083092898 2.6611638487409217 1.785371448848225 0 0 0
863 1 24.202669345385903 5.192143313659984 0.9448357038278411 0 0 0
812 1 24.81820852497342 4.204677198880551 1.8404177868829499 0 0 0
813 1 25.899165460835434 3.443401972062595 0.9700330622933966 0 0 0
138 1 26.49922469599338 4.373918329862807 0.21951490478777538 0 0 0
1489 1 25.718924011445083 3.450573297686155 2.4866543635295386 0 0 0
136 1 24.90153977486337 4.365512927895299 0.13626950876695088 0 0 0
84 1 24.99289535296967 2.798233781899703 0.3854125279011679 0 0 0
139 1 26.669791259146947 2.6521605879092673 0.4154868682170337 0 0 0
814 1 26.554494173595078 4.3607716061031985 1.8234396436418636 0 0 0
865 1 25.702003872078617 4.878410553926122 1.12006499439252 0 0 0
88 1 28.220415992251223 2.6941475435499225 0.1682512725774363 0 0 0
764 1 28.18004179355697 2.751928994010906 1.52383192364527 0 0 0
815 1 27.31186696153357 3.5250041325552006 1.0363805325402986 0 0 0
816 1 28.252321433331755 4.278919999864739 1.6635705854556115 0 0 0
1491 1 27.47850942073167 3.544824041567089 2.653049050996398 0 0 0
1543 1 27.777220329283857 5.186633082888724 2.4943849695118674 0 0 0
867 1 27.532371041138987 5.053783620811186 1.1026920641576732 0 0 0
869 1 29.13037821928376 5.189348621970892 0.8721806510942977 0 0 0
817 1 28.941869404180046 3.6610707100122415 0.7748465805027624 0 0 0
1493 1 29.11817435753777 3.7391707249768307 2.2583407039787193 0 0 0
766 1 29.609641318828665 2.7675817265848384 1.5693464541366673 0 0 0
819 1 30.503480034037118 3.640132620695368 0.7789587659559272 0 0 0
818 1 29.858709900612382 4.553380121760142 1.6544359357799399 0 0 0
1495 1 30.606851152043873 3.7359995777937764 2.3901261398236744 0 0 0
144 1 31.470654139135174 4.366091178889894 0.011418140172216661 0 0 0
1547 1 30.82887488379064 5.079618165911341 2.2417290435738324 0 0 0
90 1 29.649758342451726 2.6425750451155783 20.65226707720397 0 0 -1
768 1 31.34030027210376 2.8802373334438656 1.5083698676644512 0 0 0
871 1 30.808632640961847 5.12107938789097 0.8316236779812011 0 0 0
142 1 29.7269334079161 4.423310711839403 0.0690919909125028 0 0 0
820 1 31.486069319306157 4.15707974861556 1.5265078172376343 0 0 0
770 1 33.007270247768645 2.866045539736606 1.381555443513896 0 0 0
821 1 32.16782761375361 3.438790582769356 0.6814826233061262 0 0 0
822 1 32.90342504931626 4.323535763474316 1.5570313528659132 0 0 0
823 1 33.78165903437274 3.486986834821353 0.6951749844428021 0 0 0
1448 1 33.65832127361251 3.428848682651238 2.483333589534401 0 0 0
1497 1 32.14169363343658 3.4885897876117204 2.306712316764838 0 0 0
1549 1 32.32475826772203 5.308056489428925 2.4916265622284635 0 0 0
875 1 33.718383582070985 5.108998204913461 0.7880445027602629 0 0 0
146 1 32.89345962530773 4.4166598512342246 0.02471512678879865 0 0 0
1499 1 34.32706406701319 2.776524184623052 1.6575409055635493 0 0 0
774 1 35.901316820762 2.616481541178053 1.6440471566251638 0 0 0
825 1 35.23451015272099 3.6999023462613336 0.9026113926443453 0 0 0
826 1 36.07326178005438 4.237701279664102 1.6209888548247768 0 0 0
824 1 34.40840692011316 4.39564820448628 1.628302056829829 0 0 0
1501 1 35.23386606266989 3.4364909179859495 2.3329805127342538 0 0 0
1553 1 35.25222700890254 4.997477668070979 2.537021941245631 0 0 0
98 1 35.82774318572341 2.7753492624711065 0.20194957675519515 0 0 0
776 1 37.732931987581416 2.6034225395542405 1.4650381625223234 0 0 0
827 1 36.744019187502346 3.5235595963776944 0.7837906853633141 0 0 0
829 1 37.65409582029473 4.2596983045156405 1.4873684327288355 0 0 0
154 1 38.64621205374736 3.538530435995053 1.0073823303205747 0 0 0
1557 1 38.63575415066502 4.923931287025833 2.218832519796096 0 0 0
1505 1 38.581121171272464 3.457252590888307 2.3174318230576167 0 0 0
1503 1 36.87246695288098 3.327310964804356 2.281461373628704 0 0 0
1555 1 36.92923571547196 5.053294185488257 2.4528822154829153 0 0 0
881 1 38.54407820449539 5.013460722340728 0.751128831295018 0 0 0
828 1 36.75191341610611 5.222535451354884 0.7686793809813771 0 0 0